LAMMPS data file

12 atoms
12 bonds
18 angles
24 dihedrals
6 impropers

2 atom types
2 bond types
2 angle types
1 dihedral types
1 improper types

-2.17787 47.82213 xlo xhi
0.99881 50.99881 ylo yhi
-0.94158 49.05842 zlo zhi

Atom Type Labels

1 H
2 C

Masses

1 12.011
2 1.008

Pair Coeffs

1 0.07 3.55
2 0.03 2.42

Bond Coeffs

1 469 1.4
2 367 1.08

Angle Coeffs

1 63 120
2 35 120

Dihedral Coeffs

1 0 7.25 0 0

Improper Coeffs

1 2.5 -1 2

Atoms

1 1 1 -0.1474 1 1 0
2 1 1 -0.1476 -0.395 1 0
3 1 1 -0.1474 -1.091 1 1.20854
4 1 1 -0.1472 -0.392 1 2.41533
5 1 1 -0.147 1.003 1 2.4118
6 1 1 -0.147 1.696 1 1.20856
7 1 2 0.1474 1.543 1.00119 -0.94158
8 1 2 0.1474 -0.937 0.99881 -0.94157
9 1 2 0.1474 -2.178 1.00119 1.20854
10 1 2 0.1474 -0.934 1.00119 3.35699
11 1 2 0.147 1.548 0.99881 3.35208
12 1 2 0.147 2.783 1.00119 1.20856

Bonds

1 1 2 1
2 1 3 2
3 1 4 3
4 1 5 4
5 1 6 1
6 2 7 1
7 2 8 2
8 2 9 3
9 2 10 4
10 2 11 5
11 2 12 6
12 2 6 5

Angles

1 1 1 2 3
2 1 2 3 4
3 1 3 4 5
4 1 2 1 6
5 2 2 1 7
6 2 1 2 8
7 2 2 3 9
8 2 3 4 10
9 2 4 5 11
10 2 1 6 12
11 2 6 5 11
12 2 6 1 7
13 2 5 6 12
14 2 5 4 10
15 1 1 6 5
16 2 4 3 9
17 1 4 5 6
18 2 3 2 8

Dihedrals

1 1 4 3 2 1
2 1 5 4 3 2
3 1 6 1 2 3
4 1 10 4 3 9
5 1 8 2 3 4
6 1 10 4 3 2
7 1 6 5 4 3
8 1 5 6 1 2
9 1 8 2 1 6
10 1 7 1 2 3
11 1 9 3 2 1
12 1 12 6 5 4
13 1 11 5 4 3
14 1 10 4 5 6
15 1 11 5 6 1
16 1 12 6 1 7
17 1 12 6 5 11
18 1 9 3 2 8
19 1 8 2 1 7
20 1 7 1 6 5
21 1 12 6 1 2
22 1 4 5 6 1
23 1 11 5 4 10
24 1 9 3 4 5

Impropers

1 1 1 2 6 7
2 1 2 1 3 8
3 1 3 9 2 4
4 1 4 10 3 5
5 1 5 11 4 6
6 1 6 11 2 5
